# vtk DataFile Version 2.0
Exported VTK file
ASCII

DATASET UNSTRUCTURED_GRID
POINTS 625 float
0 0 0
0.0208333 0 0
0.0416667 0 0
0.0625 0 0
0.0833333 0 0
0.104167 0 0
0.125 0 0
0.145833 0 0
0.166667 0 0
0.1875 0 0
0.208333 0 0
0.229167 0 0
0.25 0 0
0.270833 0 0
0.291667 0 0
0.3125 0 0
0.333333 0 0
0.354167 0 0
0.375 0 0
0.395833 0 0
0.416667 0 0
0.4375 0 0
0.458333 0 0
0.479167 0 0
0.5 0 0
0 0.025 0
0.0208333 0.025 0
0.0416667 0.025 0
0.0625 0.025 0
0.0833333 0.025 0
0.104167 0.025 0
0.125 0.025 0
0.145833 0.025 0
0.166667 0.025 0
0.1875 0.025 0
0.208333 0.025 0
0.229167 0.025 0
0.25 0.025 0
0.270833 0.025 0
0.291667 0.025 0
0.3125 0.025 0
0.333333 0.025 0
0.354167 0.025 0
0.375 0.025 0
0.395833 0.025 0
0.416667 0.025 0
0.4375 0.025 0
0.458333 0.025 0
0.479167 0.025 0
0.5 0.025 0
0 0.05 0
0.0208333 0.05 0
0.0416667 0.05 0
0.0625 0.05 0
0.0833333 0.05 0
0.104167 0.05 0
0.125 0.05 0
0.145833 0.05 0
0.166667 0.05 0
0.1875 0.05 0
0.208333 0.05 0
0.229167 0.05 0
0.25 0.05 0
0.270833 0.05 0
0.291667 0.05 0
0.3125 0.05 0
0.333333 0.05 0
0.354167 0.05 0
0.375 0.05 0
0.395833 0.05 0
0.416667 0.05 0
0.4375 0.05 0
0.458333 0.05 0
0.479167 0.05 0
0.5 0.05 0
0 0.075 0
0.0208333 0.075 0
0.0416667 0.075 0
0.0625 0.075 0
0.0833333 0.075 0
0.104167 0.075 0
0.125 0.075 0
0.145833 0.075 0
0.166667 0.075 0
0.1875 0.075 0
0.208333 0.075 0
0.229167 0.075 0
0.25 0.075 0
0.270833 0.075 0
0.291667 0.075 0
0.3125 0.075 0
0.333333 0.075 0
0.354167 0.075 0
0.375 0.075 0
0.395833 0.075 0
0.416667 0.075 0
0.4375 0.075 0
0.458333 0.075 0
0.479167 0.075 0
0.5 0.075 0
0 0.1 0
0.0208333 0.1 0
0.0416667 0.1 0
0.0625 0.1 0
0.0833333 0.1 0
0.104167 0.1 0
0.125 0.1 0
0.145833 0.1 0
0.166667 0.1 0
0.1875 0.1 0
0.208333 0.1 0
0.229167 0.1 0
0.25 0.1 0
0.270833 0.1 0
0.291667 0.1 0
0.3125 0.1 0
0.333333 0.1 0
0.354167 0.1 0
0.375 0.1 0
0.395833 0.1 0
0.416667 0.1 0
0.4375 0.1 0
0.458333 0.1 0
0.479167 0.1 0
0.5 0.1 0
0 0 0.025
0.0208333 0 0.025
0.0416667 0 0.025
0.0625 0 0.025
0.0833333 0 0.025
0.104167 0 0.025
0.125 0 0.025
0.145833 0 0.025
0.166667 0 0.025
0.1875 0 0.025
0.208333 0 0.025
0.229167 0 0.025
0.25 0 0.025
0.270833 0 0.025
0.291667 0 0.025
0.3125 0 0.025
0.333333 0 0.025
0.354167 0 0.025
0.375 0 0.025
0.395833 0 0.025
0.416667 0 0.025
0.4375 0 0.025
0.458333 0 0.025
0.479167 0 0.025
0.5 0 0.025
0 0.025 0.025
0.0208333 0.025 0.025
0.0416667 0.025 0.025
0.0625 0.025 0.025
0.0833333 0.025 0.025
0.104167 0.025 0.025
0.125 0.025 0.025
0.145833 0.025 0.025
0.166667 0.025 0.025
0.1875 0.025 0.025
0.208333 0.025 0.025
0.229167 0.025 0.025
0.25 0.025 0.025
0.270833 0.025 0.025
0.291667 0.025 0.025
0.3125 0.025 0.025
0.333333 0.025 0.025
0.354167 0.025 0.025
0.375 0.025 0.025
0.395833 0.025 0.025
0.416667 0.025 0.025
0.4375 0.025 0.025
0.458333 0.025 0.025
0.479167 0.025 0.025
0.5 0.025 0.025
0 0.05 0.025
0.0208333 0.05 0.025
0.0416667 0.05 0.025
0.0625 0.05 0.025
0.0833333 0.05 0.025
0.104167 0.05 0.025
0.125 0.05 0.025
0.145833 0.05 0.025
0.166667 0.05 0.025
0.1875 0.05 0.025
0.208333 0.05 0.025
0.229167 0.05 0.025
0.25 0.05 0.025
0.270833 0.05 0.025
0.291667 0.05 0.025
0.3125 0.05 0.025
0.333333 0.05 0.025
0.354167 0.05 0.025
0.375 0.05 0.025
0.395833 0.05 0.025
0.416667 0.05 0.025
0.4375 0.05 0.025
0.458333 0.05 0.025
0.479167 0.05 0.025
0.5 0.05 0.025
0 0.075 0.025
0.0208333 0.075 0.025
0.0416667 0.075 0.025
0.0625 0.075 0.025
0.0833333 0.075 0.025
0.104167 0.075 0.025
0.125 0.075 0.025
0.145833 0.075 0.025
0.166667 0.075 0.025
0.1875 0.075 0.025
0.208333 0.075 0.025
0.229167 0.075 0.025
0.25 0.075 0.025
0.270833 0.075 0.025
0.291667 0.075 0.025
0.3125 0.075 0.025
0.333333 0.075 0.025
0.354167 0.075 0.025
0.375 0.075 0.025
0.395833 0.075 0.025
0.416667 0.075 0.025
0.4375 0.075 0.025
0.458333 0.075 0.025
0.479167 0.075 0.025
0.5 0.075 0.025
0 0.1 0.025
0.0208333 0.1 0.025
0.0416667 0.1 0.025
0.0625 0.1 0.025
0.0833333 0.1 0.025
0.104167 0.1 0.025
0.125 0.1 0.025
0.145833 0.1 0.025
0.166667 0.1 0.025
0.1875 0.1 0.025
0.208333 0.1 0.025
0.229167 0.1 0.025
0.25 0.1 0.025
0.270833 0.1 0.025
0.291667 0.1 0.025
0.3125 0.1 0.025
0.333333 0.1 0.025
0.354167 0.1 0.025
0.375 0.1 0.025
0.395833 0.1 0.025
0.416667 0.1 0.025
0.4375 0.1 0.025
0.458333 0.1 0.025
0.479167 0.1 0.025
0.5 0.1 0.025
0 0 0.05
0.0208333 0 0.05
0.0416667 0 0.05
0.0625 0 0.05
0.0833333 0 0.05
0.104167 0 0.05
0.125 0 0.05
0.145833 0 0.05
0.166667 0 0.05
0.1875 0 0.05
0.208333 0 0.05
0.229167 0 0.05
0.25 0 0.05
0.270833 0 0.05
0.291667 0 0.05
0.3125 0 0.05
0.333333 0 0.05
0.354167 0 0.05
0.375 0 0.05
0.395833 0 0.05
0.416667 0 0.05
0.4375 0 0.05
0.458333 0 0.05
0.479167 0 0.05
0.5 0 0.05
0 0.025 0.05
0.0208333 0.025 0.05
0.0416667 0.025 0.05
0.0625 0.025 0.05
0.0833333 0.025 0.05
0.104167 0.025 0.05
0.125 0.025 0.05
0.145833 0.025 0.05
0.166667 0.025 0.05
0.1875 0.025 0.05
0.208333 0.025 0.05
0.229167 0.025 0.05
0.25 0.025 0.05
0.270833 0.025 0.05
0.291667 0.025 0.05
0.3125 0.025 0.05
0.333333 0.025 0.05
0.354167 0.025 0.05
0.375 0.025 0.05
0.395833 0.025 0.05
0.416667 0.025 0.05
0.4375 0.025 0.05
0.458333 0.025 0.05
0.479167 0.025 0.05
0.5 0.025 0.05
0 0.05 0.05
0.0208333 0.05 0.05
0.0416667 0.05 0.05
0.0625 0.05 0.05
0.0833333 0.05 0.05
0.104167 0.05 0.05
0.125 0.05 0.05
0.145833 0.05 0.05
0.166667 0.05 0.05
0.1875 0.05 0.05
0.208333 0.05 0.05
0.229167 0.05 0.05
0.25 0.05 0.05
0.270833 0.05 0.05
0.291667 0.05 0.05
0.3125 0.05 0.05
0.333333 0.05 0.05
0.354167 0.05 0.05
0.375 0.05 0.05
0.395833 0.05 0.05
0.416667 0.05 0.05
0.4375 0.05 0.05
0.458333 0.05 0.05
0.479167 0.05 0.05
0.5 0.05 0.05
0 0.075 0.05
0.0208333 0.075 0.05
0.0416667 0.075 0.05
0.0625 0.075 0.05
0.0833333 0.075 0.05
0.104167 0.075 0.05
0.125 0.075 0.05
0.145833 0.075 0.05
0.166667 0.075 0.05
0.1875 0.075 0.05
0.208333 0.075 0.05
0.229167 0.075 0.05
0.25 0.075 0.05
0.270833 0.075 0.05
0.291667 0.075 0.05
0.3125 0.075 0.05
0.333333 0.075 0.05
0.354167 0.075 0.05
0.375 0.075 0.05
0.395833 0.075 0.05
0.416667 0.075 0.05
0.4375 0.075 0.05
0.458333 0.075 0.05
0.479167 0.075 0.05
0.5 0.075 0.05
0 0.1 0.05
0.0208333 0.1 0.05
0.0416667 0.1 0.05
0.0625 0.1 0.05
0.0833333 0.1 0.05
0.104167 0.1 0.05
0.125 0.1 0.05
0.145833 0.1 0.05
0.166667 0.1 0.05
0.1875 0.1 0.05
0.208333 0.1 0.05
0.229167 0.1 0.05
0.25 0.1 0.05
0.270833 0.1 0.05
0.291667 0.1 0.05
0.3125 0.1 0.05
0.333333 0.1 0.05
0.354167 0.1 0.05
0.375 0.1 0.05
0.395833 0.1 0.05
0.416667 0.1 0.05
0.4375 0.1 0.05
0.458333 0.1 0.05
0.479167 0.1 0.05
0.5 0.1 0.05
0 0 0.075
0.0208333 0 0.075
0.0416667 0 0.075
0.0625 0 0.075
0.0833333 0 0.075
0.104167 0 0.075
0.125 0 0.075
0.145833 0 0.075
0.166667 0 0.075
0.1875 0 0.075
0.208333 0 0.075
0.229167 0 0.075
0.25 0 0.075
0.270833 0 0.075
0.291667 0 0.075
0.3125 0 0.075
0.333333 0 0.075
0.354167 0 0.075
0.375 0 0.075
0.395833 0 0.075
0.416667 0 0.075
0.4375 0 0.075
0.458333 0 0.075
0.479167 0 0.075
0.5 0 0.075
0 0.025 0.075
0.0208333 0.025 0.075
0.0416667 0.025 0.075
0.0625 0.025 0.075
0.0833333 0.025 0.075
0.104167 0.025 0.075
0.125 0.025 0.075
0.145833 0.025 0.075
0.166667 0.025 0.075
0.1875 0.025 0.075
0.208333 0.025 0.075
0.229167 0.025 0.075
0.25 0.025 0.075
0.270833 0.025 0.075
0.291667 0.025 0.075
0.3125 0.025 0.075
0.333333 0.025 0.075
0.354167 0.025 0.075
0.375 0.025 0.075
0.395833 0.025 0.075
0.416667 0.025 0.075
0.4375 0.025 0.075
0.458333 0.025 0.075
0.479167 0.025 0.075
0.5 0.025 0.075
0 0.05 0.075
0.0208333 0.05 0.075
0.0416667 0.05 0.075
0.0625 0.05 0.075
0.0833333 0.05 0.075
0.104167 0.05 0.075
0.125 0.05 0.075
0.145833 0.05 0.075
0.166667 0.05 0.075
0.1875 0.05 0.075
0.208333 0.05 0.075
0.229167 0.05 0.075
0.25 0.05 0.075
0.270833 0.05 0.075
0.291667 0.05 0.075
0.3125 0.05 0.075
0.333333 0.05 0.075
0.354167 0.05 0.075
0.375 0.05 0.075
0.395833 0.05 0.075
0.416667 0.05 0.075
0.4375 0.05 0.075
0.458333 0.05 0.075
0.479167 0.05 0.075
0.5 0.05 0.075
0 0.075 0.075
0.0208333 0.075 0.075
0.0416667 0.075 0.075
0.0625 0.075 0.075
0.0833333 0.075 0.075
0.104167 0.075 0.075
0.125 0.075 0.075
0.145833 0.075 0.075
0.166667 0.075 0.075
0.1875 0.075 0.075
0.208333 0.075 0.075
0.229167 0.075 0.075
0.25 0.075 0.075
0.270833 0.075 0.075
0.291667 0.075 0.075
0.3125 0.075 0.075
0.333333 0.075 0.075
0.354167 0.075 0.075
0.375 0.075 0.075
0.395833 0.075 0.075
0.416667 0.075 0.075
0.4375 0.075 0.075
0.458333 0.075 0.075
0.479167 0.075 0.075
0.5 0.075 0.075
0 0.1 0.075
0.0208333 0.1 0.075
0.0416667 0.1 0.075
0.0625 0.1 0.075
0.0833333 0.1 0.075
0.104167 0.1 0.075
0.125 0.1 0.075
0.145833 0.1 0.075
0.166667 0.1 0.075
0.1875 0.1 0.075
0.208333 0.1 0.075
0.229167 0.1 0.075
0.25 0.1 0.075
0.270833 0.1 0.075
0.291667 0.1 0.075
0.3125 0.1 0.075
0.333333 0.1 0.075
0.354167 0.1 0.075
0.375 0.1 0.075
0.395833 0.1 0.075
0.416667 0.1 0.075
0.4375 0.1 0.075
0.458333 0.1 0.075
0.479167 0.1 0.075
0.5 0.1 0.075
0 0 0.1
0.0208333 0 0.1
0.0416667 0 0.1
0.0625 0 0.1
0.0833333 0 0.1
0.104167 0 0.1
0.125 0 0.1
0.145833 0 0.1
0.166667 0 0.1
0.1875 0 0.1
0.208333 0 0.1
0.229167 0 0.1
0.25 0 0.1
0.270833 0 0.1
0.291667 0 0.1
0.3125 0 0.1
0.333333 0 0.1
0.354167 0 0.1
0.375 0 0.1
0.395833 0 0.1
0.416667 0 0.1
0.4375 0 0.1
0.458333 0 0.1
0.479167 0 0.1
0.5 0 0.1
0 0.025 0.1
0.0208333 0.025 0.1
0.0416667 0.025 0.1
0.0625 0.025 0.1
0.0833333 0.025 0.1
0.104167 0.025 0.1
0.125 0.025 0.1
0.145833 0.025 0.1
0.166667 0.025 0.1
0.1875 0.025 0.1
0.208333 0.025 0.1
0.229167 0.025 0.1
0.25 0.025 0.1
0.270833 0.025 0.1
0.291667 0.025 0.1
0.3125 0.025 0.1
0.333333 0.025 0.1
0.354167 0.025 0.1
0.375 0.025 0.1
0.395833 0.025 0.1
0.416667 0.025 0.1
0.4375 0.025 0.1
0.458333 0.025 0.1
0.479167 0.025 0.1
0.5 0.025 0.1
0 0.05 0.1
0.0208333 0.05 0.1
0.0416667 0.05 0.1
0.0625 0.05 0.1
0.0833333 0.05 0.1
0.104167 0.05 0.1
0.125 0.05 0.1
0.145833 0.05 0.1
0.166667 0.05 0.1
0.1875 0.05 0.1
0.208333 0.05 0.1
0.229167 0.05 0.1
0.25 0.05 0.1
0.270833 0.05 0.1
0.291667 0.05 0.1
0.3125 0.05 0.1
0.333333 0.05 0.1
0.354167 0.05 0.1
0.375 0.05 0.1
0.395833 0.05 0.1
0.416667 0.05 0.1
0.4375 0.05 0.1
0.458333 0.05 0.1
0.479167 0.05 0.1
0.5 0.05 0.1
0 0.075 0.1
0.0208333 0.075 0.1
[...]
POINT_DATA 625
VECTORS position double
0 0 0
0.0208333 0 0
0.0416667 0 0
0.0625 0 0
0.0833333 0 0
0.104167 0 0
0.125 0 0
0.145833 0 0
0.166667 0 0
0.1875 0 0
0.208333 0 0
0.229167 0 0
0.25 0 0
0.270833 0 0
0.291667 0 0
0.3125 0 0
0.333333 0 0
0.354167 0 0
0.375 0 0
0.395833 0 0
0.416667 0 0
0.4375 0 0
0.458333 0 0
0.479167 0 0
0.5 0 0
0 0.025 0
0.0208333 0.025 0
0.0416667 0.025 0
0.0625 0.025 0
0.0833333 0.025 0
0.104167 0.025 0
0.125 0.025 0
0.145833 0.025 0
0.166667 0.025 0
0.1875 0.025 0
0.208333 0.025 0
0.229167 0.025 0
0.25 0.025 0
0.270833 0.025 0
0.291667 0.025 0
0.3125 0.025 0
0.333333 0.025 0
0.354167 0.025 0
0.375 0.025 0
0.395833 0.025 0
0.416667 0.025 0
0.4375 0.025 0
0.458333 0.025 0
0.479167 0.025 0
0.5 0.025 0
0 0.05 0
0.0208333 0.05 0
0.0416667 0.05 0
0.0625 0.05 0
0.0833333 0.05 0
0.104167 0.05 0
0.125 0.05 0
0.145833 0.05 0
0.166667 0.05 0
0.1875 0.05 0
0.208333 0.05 0
0.229167 0.05 0
0.25 0.05 0
0.270833 0.05 0
0.291667 0.05 0
0.3125 0.05 0
0.333333 0.05 0
0.354167 0.05 0
0.375 0.05 0
0.395833 0.05 0
0.416667 0.05 0
0.4375 0.05 0
0.458333 0.05 0
0.479167 0.05 0
0.5 0.05 0
0 0.075 0
0.0208333 0.075 0
0.0416667 0.075 0
0.0625 0.075 0
0.0833333 0.075 0
0.104167 0.075 0
0.125 0.075 0
0.145833 0.075 0
0.166667 0.075 0
0.1875 0.075 0
0.208333 0.075 0
0.229167 0.075 0
0.25 0.075 0
0.270833 0.075 0
0.291667 0.075 0
0.3125 0.075 0
0.333333 0.075 0
0.354167 0.075 0
0.375 0.075 0
0.395833 0.075 0
0.416667 0.075 0
0.4375 0.075 0
0.458333 0.075 0
0.479167 0.075 0
0.5 0.075 0
0 0.1 0
0.0208333 0.1 0
0.0416667 0.1 0
0.0625 0.1 0
0.0833333 0.1 0
0.104167 0.1 0
0.125 0.1 0
0.145833 0.1 0
0.166667 0.1 0
0.1875 0.1 0
0.208333 0.1 0
0.229167 0.1 0
0.25 0.1 0
0.270833 0.1 0
0.291667 0.1 0
0.3125 0.1 0
0.333333 0.1 0
0.354167 0.1 0
0.375 0.1 0
0.395833 0.1 0
0.416667 0.1 0
0.4375 0.1 0
0.458333 0.1 0
0.479167 0.1 0
0.5 0.1 0
0 0 0.025
0.0208333 0 0.025
0.0416667 0 0.025
0.0625 0 0.025
0.0833333 0 0.025
0.104167 0 0.025
0.125 0 0.025
0.145833 0 0.025
0.166667 0 0.025
0.1875 0 0.025
0.208333 0 0.025
0.229167 0 0.025
0.25 0 0.025
0.270833 0 0.025
0.291667 0 0.025
0.3125 0 0.025
0.333333 0 0.025
0.354167 0 0.025
0.375 0 0.025
0.395833 0 0.025
0.416667 0 0.025
0.4375 0 0.025
0.458333 0 0.025
0.479167 0 0.025
0.5 0 0.025
0 0.025 0.025
0.0208333 0.025 0.025
0.0416667 0.025 0.025
0.0625 0.025 0.025
0.0833333 0.025 0.025
0.104167 0.025 0.025
0.125 0.025 0.025
0.145833 0.025 0.025
0.166667 0.025 0.025
0.1875 0.025 0.025
0.208333 0.025 0.025
0.229167 0.025 0.025
0.25 0.025 0.025
0.270833 0.025 0.025
0.291667 0.025 0.025
0.3125 0.025 0.025
0.333333 0.025 0.025
0.354167 0.025 0.025
0.375 0.025 0.025
0.395833 0.025 0.025
0.416667 0.025 0.025
0.4375 0.025 0.025
0.458333 0.025 0.025
0.479167 0.025 0.025
0.5 0.025 0.025
0 0.05 0.025
0.0208333 0.05 0.025
0.0416667 0.05 0.025
0.0625 0.05 0.025
0.0833333 0.05 0.025
0.104167 0.05 0.025
0.125 0.05 0.025
0.145833 0.05 0.025
0.166667 0.05 0.025
0.1875 0.05 0.025
0.208333 0.05 0.025
0.229167 0.05 0.025
0.25 0.05 0.025
0.270833 0.05 0.025
0.291667 0.05 0.025
0.3125 0.05 0.025
0.333333 0.05 0.025
0.354167 0.05 0.025
0.375 0.05 0.025
0.395833 0.05 0.025
0.416667 0.05 0.025
0.4375 0.05 0.025
0.458333 0.05 0.025
0.479167 0.05 0.025
0.5 0.05 0.025
0 0.075 0.025
0.0208333 0.075 0.025
0.0416667 0.075 0.025
0.0625 0.075 0.025
0.0833333 0.075 0.025
0.104167 0.075 0.025
0.125 0.075 0.025
0.145833 0.075 0.025
0.166667 0.075 0.025
0.1875 0.075 0.025
0.208333 0.075 0.025
0.229167 0.075 0.025
0.25 0.075 0.025
0.270833 0.075 0.025
0.291667 0.075 0.025
0.3125 0.075 0.025
0.333333 0.075 0.025
0.354167 0.075 0.025
0.375 0.075 0.025
0.395833 0.075 0.025
0.416667 0.075 0.025
0.4375 0.075 0.025
0.458333 0.075 0.025
0.479167 0.075 0.025
0.5 0.075 0.025
0 0.1 0.025
0.0208333 0.1 0.025
0.0416667 0.1 0.025
0.0625 0.1 0.025
0.0833333 0.1 0.025
0.104167 0.1 0.025
0.125 0.1 0.025
0.145833 0.1 0.025
0.166667 0.1 0.025
0.1875 0.1 0.025
0.208333 0.1 0.025
0.229167 0.1 0.025
0.25 0.1 0.025
0.270833 0.1 0.025
0.291667 0.1 0.025
0.3125 0.1 0.025
0.333333 0.1 0.025
0.354167 0.1 0.025
0.375 0.1 0.025
0.395833 0.1 0.025
0.416667 0.1 0.025
0.4375 0.1 0.025
0.458333 0.1 0.025
0.479167 0.1 0.025
0.5 0.1 0.025
0 0 0.05
0.0208333 0 0.05
0.0416667 0 0.05
0.0625 0 0.05
0.0833333 0 0.05
0.104167 0 0.05
0.125 0 0.05
0.145833 0 0.05
0.166667 0 0.05
0.1875 0 0.05
0.208333 0 0.05
0.229167 0 0.05
0.25 0 0.05
0.270833 0 0.05
0.291667 0 0.05
0.3125 0 0.05
0.333333 0 0.05
0.354167 0 0.05
0.375 0 0.05
0.395833 0 0.05
0.416667 0 0.05
0.4375 0 0.05
0.458333 0 0.05
0.479167 0 0.05
0.5 0 0.05
0 0.025 0.05
0.0208333 0.025 0.05
0.0416667 0.025 0.05
0.0625 0.025 0.05
0.0833333 0.025 0.05
0.104167 0.025 0.05
0.125 0.025 0.05
0.145833 0.025 0.05
0.166667 0.025 0.05
0.1875 0.025 0.05
0.208333 0.025 0.05
0.229167 0.025 0.05
0.25 0.025 0.05
0.270833 0.025 0.05
0.291667 0.025 0.05
0.3125 0.025 0.05
0.333333 0.025 0.05
0.354167 0.025 0.05
0.375 0.025 0.05
0.395833 0.025 0.05
0.416667 0.025 0.05
0.4375 0.025 0.05
0.458333 0.025 0.05
0.479167 0.025 0.05
0.5 0.025 0.05
0 0.05 0.05
0.0208333 0.05 0.05
0.0416667 0.05 0.05
0.0625 0.05 0.05
0.0833333 0.05 0.05
0.104167 0.05 0.05
0.125 0.05 0.05
0.145833 0.05 0.05
0.166667 0.05 0.05
0.1875 0.05 0.05
0.208333 0.05 0.05
0.229167 0.05 0.05
0.25 0.05 0.05
0.270833 0.05 0.05
0.291667 0.05 0.05
0.3125 0.05 0.05
0.333333 0.05 0.05
0.354167 0.05 0.05
0.375 0.05 0.05
0.395833 0.05 0.05
0.416667 0.05 0.05
0.4375 0.05 0.05
0.458333 0.05 0.05
0.479167 0.05 0.05
0.5 0.05 0.05
0 0.075 0.05
0.0208333 0.075 0.05
0.0416667 0.075 0.05
0.0625 0.075 0.05
0.0833333 0.075 0.05
0.104167 0.075 0.05
0.125 0.075 0.05
0.145833 0.075 0.05
0.166667 0.075 0.05
0.1875 0.075 0.05
0.208333 0.075 0.05
0.229167 0.075 0.05
0.25 0.075 0.05
0.270833 0.075 0.05
0.291667 0.075 0.05
0.3125 0.075 0.05
0.333333 0.075 0.05
0.354167 0.075 0.05
0.375 0.075 0.05
0.395833 0.075 0.05
0.416667 0.075 0.05
0.4375 0.075 0.05
0.458333 0.075 0.05
0.479167 0.075 0.05
0.5 0.075 0.05
0 0.1 0.05
0.0208333 0.1 0.05
0.0416667 0.1 0.05
0.0625 0.1 0.05
0.0833333 0.1 0.05
0.104167 0.1 0.05
0.125 0.1 0.05
0.145833 0.1 0.05
0.166667 0.1 0.05
0.1875 0.1 0.05
0.208333 0.1 0.05
0.229167 0.1 0.05
0.25 0.1 0.05
0.270833 0.1 0.05
0.291667 0.1 0.05
0.3125 0.1 0.05
0.333333 0.1 0.05
0.354167 0.1 0.05
0.375 0.1 0.05
0.395833 0.1 0.05
0.416667 0.1 0.05
0.4375 0.1 0.05
0.458333 0.1 0.05
0.479167 0.1 0.05
0.5 0.1 0.05
0 0 0.075
0.0208333 0 0.075
0.0416667 0 0.075
0.0625 0 0.075
0.0833333 0 0.075
0.104167 0 0.075
0.125 0 0.075
0.145833 0 0.075
0.166667 0 0.075
0.1875 0 0.075
0.208333 0 0.075
0.229167 0 0.075
0.25 0 0.075
0.270833 0 0.075
0.291667 0 0.075
0.3125 0 0.075
0.333333 0 0.075
0.354167 0 0.075
0.375 0 0.075
0.395833 0 0.075
0.416667 0 0.075
0.4375 0 0.075
0.458333 0 0.075
0.479167 0 0.075
0.5 0 0.075
0 0.025 0.075
0.0208333 0.025 0.075
0.0416667 0.025 0.075
0.0625 0.025 0.075
0.0833333 0.025 0.075
0.104167 0.025 0.075
0.125 0.025 0.075
0.145833 0.025 0.075
0.166667 0.025 0.075
0.1875 0.025 0.075
0.208333 0.025 0.075
0.229167 0.025 0.075
0.25 0.025 0.075
0.270833 0.025 0.075
0.291667 0.025 0.075
0.3125 0.025 0.075
0.333333 0.025 0.075
0.354167 0.025 0.075
0.375 0.025 0.075
0.395833 0.025 0.075
0.416667 0.025 0.075
0.4375 0.025 0.075
0.458333 0.025 0.075
0.479167 0.025 0.075
0.5 0.025 0.075
0 0.05 0.075
0.0208333 0.05 0.075
0.0416667 0.05 0.075
0.0625 0.05 0.075
0.0833333 0.05 0.075
0.104167 0.05 0.075
0.125 0.05 0.075
0.145833 0.05 0.075
0.166667 0.05 0.075
0.1875 0.05 0.075
0.208333 0.05 0.075
0.229167 0.05 0.075
0.25 0.05 0.075
0.270833 0.05 0.075
0.291667 0.05 0.075
0.3125 0.05 0.075
0.333333 0.05 0.075
0.354167 0.05 0.075
0.375 0.05 0.075
0.395833 0.05 0.075
0.416667 0.05 0.075
0.4375 0.05 0.075
0.458333 0.05 0.075
0.479167 0.05 0.075
0.5 0.05 0.075
0 0.075 0.075
0.0208333 0.075 0.075
0.0416667 0.075 0.075
0.0625 0.075 0.075
0.0833333 0.075 0.075
0.104167 0.075 0.075
0.125 0.075 0.075
0.145833 0.075 0.075
0.166667 0.075 0.075
0.1875 0.075 0.075
0.208333 0.075 0.075
0.229167 0.075 0.075
0.25 0.075 0.075
0.270833 0.075 0.075
0.291667 0.075 0.075
0.3125 0.075 0.075
0.333333 0.075 0.075
0.354167 0.075 0.075
0.375 0.075 0.075
0.395833 0.075 0.075
0.416667 0.075 0.075
0.4375 0.075 0.075
0.458333 0.075 0.075
0.479167 0.075 0.075
0.5 0.075 0.075
0 0.1 0.075
0.0208333 0.1 0.075
0.0416667 0.1 0.075
0.0625 0.1 0.075
0.0833333 0.1 0.075
0.104167 0.1 0.075
0.125 0.1 0.075
0.145833 0.1 0.075
0.166667 0.1 0.075
0.1875 0.1 0.075
0.208333 0.1 0.075
0.229167 0.1 0.075
0.25 0.1 0.075
0.270833 0.1 0.075
0.291667 0.1 0.075
0.3125 0.1 0.075
0.333333 0.1 0.075
0.354167 0.1 0.075
0.375 0.1 0.075
0.395833 0.1 0.075
0.416667 0.1 0.075
0.4375 0.1 0.075
0.458333 0.1 0.075
0.479167 0.1 0.075
0.5 0.1 0.075
0 0 0.1
0.0208333 0 0.1
0.0416667 0 0.1
0.0625 0 0.1
0.0833333 0 0.1
0.104167 0 0.1
0.125 0 0.1
0.145833 0 0.1
0.166667 0 0.1
0.1875 0 0.1
0.208333 0 0.1
0.229167 0 0.1
0.25 0 0.1
0.270833 0 0.1
0.291667 0 0.1
0.3125 0 0.1
0.333333 0 0.1
0.354167 0 0.1
0.375 0 0.1
0.395833 0 0.1
0.416667 0 0.1
0.4375 0 0.1
0.458333 0 0.1
0.479167 0 0.1
0.5 0 0.1
0 0.025 0.1
0.0208333 0.025 0.1
0.0416667 0.025 0.1
0.0625 0.025 0.1
0.0833333 0.025 0.1
0.104167 0.025 0.1
0.125 0.025 0.1
0.145833 0.025 0.1
0.166667 0.025 0.1
0.1875 0.025 0.1
0.208333 0.025 0.1
0.229167 0.025 0.1
0.25 0.025 0.1
0.270833 0.025 0.1
0.291667 0.025 0.1
0.3125 0.025 0.1
0.333333 0.025 0.1
0.354167 0.025 0.1
0.375 0.025 0.1
0.395833 0.025 0.1
0.416667 0.025 0.1
0.4375 0.025 0.1
0.458333 0.025 0.1
0.479167 0.025 0.1
0.5 0.025 0.1
0 0.05 0.1
0.0208333 0.05 0.1
0.0416667 0.05 0.1
0.0625 0.05 0.1
0.0833333 0.05 0.1
0.104167 0.05 0.1
0.125 0.05 0.1
0.145833 0.05 0.1
0.166667 0.05 0.1
0.1875 0.05 0.1
0.208333 0.05 0.1
0.229167 0.05 0.1
0.25 0.05 0.1
0.270833 0.05 0.1
0.291667 0.05 0.1
0.3125 0.05 0.1
0.333333 0.05 0.1
0.354167 0.05 0.1
0.375 0.05 0.1
0.395833 0.05 0.1
0.416667 0.05 0.1
0.4375 0.05 0.1
0.458333 0.05 0.1
0.479167 0.05 0.1
0.5 0.05 0.1
0 0.075 0.1
0.0208333 0.075 0.1
0.0416667 0.075 0.1
0.0625 0.075 0.1
0.0833333 0.075 0.1
0.104167 0.075 0.1
0.125 0.075 0.1
0.145833 0.075 0.1
0.166667 0.075 0.1
0.1875 0.075 0.1
0.208333 0.075 0.1
0.229167 0.075 0.1
0.25 0.075 0.1
0.270833 0.075 0.1
0.291667 0.075 0.1
0.3125 0.075 0.1
0.333333 0.075 0.1
0.354167 0.075 0.1
0.375 0.075 0.1
0.395833 0.075 0.1
0.416667 0.075 0.1
0.4375 0.075 0.1
0.458333 0.075 0.1
0.479167 0.075 0.1
0.5 0.075 0.1
0 0.1 0.1
0.0208333 0.1 0.1
0.0416667 0.1 0.1
0.0625 0.1 0.1
0.0833333 0.1 0.1
0.104167 0.1 0.1
0.125 0.1 0.1
0.145833 0.1 0.1
0.166667 0.1 0.1
0.1875 0.1 0.1
0.208333 0.1 0.1
0.229167 0.1 0.1
0.25 0.1 0.1
0.270833 0.1 0.1
0.291667 0.1 0.1
0.3125 0.1 0.1
0.333333 0.1 0.1
0.354167 0.1 0.1
0.375 0.1 0.1
0.395833 0.1 0.1
0.416667 0.1 0.1
0.4375 0.1 0.1
0.458333 0.1 0.1
0.479167 0.1 0.1
0.5 0.1 0.1

